<?xml version="1.0" encoding="UTF-8"?>

<!-- generated on Mon Jun 22 17:21:09 2020 by Eclipse SUMO GUI Version 1.6.0
<configuration xmlns:xsi="http://www.w3.org/2001/XMLSchema-instance" xsi:noNamespaceSchemaLocation="http://sumo.dlr.de/xsd/sumoConfiguration.xsd">

    <input>
        <net-file value="200m_two_lane.net.xml"/>
        <route-files value="200m_two_lane.rou.xml"/>
        <additional-files value="200m_two_lane.add.xml"/>
    </input>

    <output>
        <tripinfo-output value="tripinfo.xml"/>
    </output>

    <traci_server>
        <remote-port value="57283"/>
    </traci_server>

</configuration>
-->

<tripinfos xmlns:xsi="http://www.w3.org/2001/XMLSchema-instance" xsi:noNamespaceSchemaLocation="http://sumo.dlr.de/xsd/tripinfo_file.xsd">
    <tripinfo id="0" depart="0.00" departLane="E1_0" departPos="5.10" departSpeed="0.00" departDelay="0.00" arrival="26.00" arrivalLane="E1_0" arrivalPos="200.00" arrivalSpeed="8.49" duration="26.00" routeLength="194.90" waitingTime="0.00" waitingCount="0" stopTime="0.00" timeLoss="4.33" rerouteNo="0" devices="tripinfo_0" vType="car" speedFactor="1.06" vaporized=""/>
    <tripinfo id="ev_0" depart="10.00" departLane="E1_0" departPos="7.10" departSpeed="0.00" departDelay="10.00" arrival="26.00" arrivalLane="E1_1" arrivalPos="200.00" arrivalSpeed="13.93" duration="16.00" routeLength="192.90" waitingTime="0.00" waitingCount="0" stopTime="0.00" timeLoss="4.34" rerouteNo="0" devices="tripinfo_ev_0" vType="ev" speedFactor="2.00" vaporized=""/>
    <tripinfo id="1" depart="4.00" departLane="E1_0" departPos="5.10" departSpeed="0.00" departDelay="4.00" arrival="33.00" arrivalLane="E1_0" arrivalPos="200.00" arrivalSpeed="7.40" duration="29.00" routeLength="194.90" waitingTime="0.00" waitingCount="0" stopTime="0.00" timeLoss="5.31" rerouteNo="0" devices="tripinfo_1" vType="car" speedFactor="0.94" vaporized=""/>
    <tripinfo id="2" depart="7.00" departLane="E1_0" departPos="5.10" departSpeed="0.00" departDelay="7.00" arrival="34.00" arrivalLane="E1_1" arrivalPos="200.00" arrivalSpeed="8.13" duration="27.00" routeLength="194.90" waitingTime="0.00" waitingCount="0" stopTime="0.00" timeLoss="4.87" rerouteNo="0" devices="tripinfo_2" vType="car" speedFactor="1.01" vaporized=""/>
    <tripinfo id="3" depart="13.00" departLane="E1_0" departPos="5.10" departSpeed="0.00" departDelay="13.00" arrival="38.00" arrivalLane="E1_0" arrivalPos="200.00" arrivalSpeed="8.74" duration="25.00" routeLength="194.90" waitingTime="0.00" waitingCount="0" stopTime="0.00" timeLoss="4.46" rerouteNo="0" devices="tripinfo_3" vType="car" speedFactor="1.08" vaporized=""/>
    <tripinfo id="4" depart="16.00" departLane="E1_0" departPos="5.10" departSpeed="0.00" departDelay="16.00" arrival="43.00" arrivalLane="E1_0" arrivalPos="200.00" arrivalSpeed="8.69" duration="27.00" routeLength="194.90" waitingTime="0.00" waitingCount="0" stopTime="0.00" timeLoss="5.48" rerouteNo="0" devices="tripinfo_4" vType="car" speedFactor="1.03" vaporized=""/>
    <tripinfo id="6" depart="23.00" departLane="E1_0" departPos="5.10" departSpeed="0.00" departDelay="23.00" arrival="50.00" arrivalLane="E1_1" arrivalPos="200.00" arrivalSpeed="7.71" duration="27.00" routeLength="194.90" waitingTime="0.00" waitingCount="0" stopTime="0.00" timeLoss="5.24" rerouteNo="0" devices="tripinfo_6" vType="car" speedFactor="1.05" vaporized=""/>
    <tripinfo id="5" depart="20.00" departLane="E1_0" departPos="5.10" departSpeed="0.00" departDelay="20.00" arrival="53.00" arrivalLane="E1_0" arrivalPos="200.00" arrivalSpeed="5.72" duration="33.00" routeLength="194.90" waitingTime="0.00" waitingCount="0" stopTime="0.00" timeLoss="5.99" rerouteNo="0" devices="tripinfo_5" vType="car" speedFactor="0.83" vaporized=""/>
    <tripinfo id="7" depart="26.00" departLane="E1_0" departPos="5.10" departSpeed="0.00" departDelay="26.00" arrival="57.00" arrivalLane="E1_0" arrivalPos="200.00" arrivalSpeed="5.96" duration="31.00" routeLength="194.90" waitingTime="0.00" waitingCount="0" stopTime="0.00" timeLoss="5.70" rerouteNo="0" devices="tripinfo_7" vType="car" speedFactor="0.89" vaporized=""/>
    <tripinfo id="8" depart="29.00" departLane="E1_0" departPos="5.10" departSpeed="0.00" departDelay="29.00" arrival="59.00" arrivalLane="E1_1" arrivalPos="200.00" arrivalSpeed="6.97" duration="30.00" routeLength="194.90" waitingTime="0.00" waitingCount="0" stopTime="0.00" timeLoss="6.22" rerouteNo="0" devices="tripinfo_8" vType="car" speedFactor="0.94" vaporized=""/>
    <tripinfo id="10" depart="35.00" departLane="E1_0" departPos="5.10" departSpeed="0.00" departDelay="35.00" arrival="62.00" arrivalLane="E1_1" arrivalPos="200.00" arrivalSpeed="7.94" duration="27.00" routeLength="194.90" waitingTime="0.00" waitingCount="0" stopTime="0.00" timeLoss="6.11" rerouteNo="0" devices="tripinfo_10" vType="car" speedFactor="1.09" vaporized=""/>
    <tripinfo id="9" depart="32.00" departLane="E1_0" departPos="5.10" departSpeed="0.00" departDelay="32.00" arrival="64.00" arrivalLane="E1_0" arrivalPos="200.00" arrivalSpeed="6.89" duration="32.00" routeLength="194.90" waitingTime="0.00" waitingCount="0" stopTime="0.00" timeLoss="5.68" rerouteNo="0" devices="tripinfo_9" vType="car" speedFactor="0.86" vaporized=""/>
    <tripinfo id="11" depart="39.00" departLane="E1_0" departPos="5.10" departSpeed="0.00" departDelay="39.00" arrival="66.00" arrivalLane="E1_1" arrivalPos="200.00" arrivalSpeed="7.14" duration="27.00" routeLength="194.90" waitingTime="0.00" waitingCount="0" stopTime="0.00" timeLoss="5.13" rerouteNo="0" devices="tripinfo_11" vType="car" speedFactor="1.03" vaporized=""/>
    <tripinfo id="12" depart="42.00" departLane="E1_0" departPos="5.10" departSpeed="0.00" departDelay="42.00" arrival="69.00" arrivalLane="E1_0" arrivalPos="200.00" arrivalSpeed="7.51" duration="27.00" routeLength="194.90" waitingTime="0.00" waitingCount="0" stopTime="0.00" timeLoss="5.34" rerouteNo="0" devices="tripinfo_12" vType="car" speedFactor="1.05" vaporized=""/>
    <tripinfo id="13" depart="46.00" departLane="E1_0" departPos="5.10" departSpeed="0.00" departDelay="46.00" arrival="71.00" arrivalLane="E1_0" arrivalPos="200.00" arrivalSpeed="7.90" duration="25.00" routeLength="194.90" waitingTime="0.00" waitingCount="0" stopTime="0.00" timeLoss="5.23" rerouteNo="0" devices="tripinfo_13" vType="car" speedFactor="1.12" vaporized=""/>
</tripinfos>
